12
Properties=species:S:1:pos:R:3:c_diameter[1]:R:1:c_diameter[2]:R:1:c_diameter[3]:R:1:c_q:I:4:forces:R:3 energy=-146536.1068 pbc="F F F"
C        0.00000000       1.39700000       0.00000000       1.00000000       1.00000000       1.00000000        1        0        0        0       0.00000000      -3.82596480      -0.00000000
C        1.20980000       0.69850000       0.00000000       1.00000000       1.00000000       1.00000000        1        0        0        0      -3.24928800      -1.94189760      -0.00000000
C        1.20980000      -0.69850000       0.00000000       1.00000000       1.00000000       1.00000000        1        0        0        0      -3.24928800       1.94189760       0.00000000
C        0.00000000      -1.39700000       0.00000000       1.00000000       1.00000000       1.00000000        1        0        0        0       0.00000000       3.82596480      -0.00000000
C       -1.20980000      -0.69850000       0.00000000       1.00000000       1.00000000       1.00000000        1        0        0        0       3.24928800       1.94189760       0.00000000
C       -1.20980000       0.69850000       0.00000000       1.00000000       1.00000000       1.00000000        1        0        0        0       3.24928800      -1.94189760      -0.00000000
H        0.00000000       2.48100000       0.00000000       1.00000000       1.00000000       1.00000000        1        0        0        0      -0.00000000       6.04474560       0.00000000
H        2.14860000       1.24050000       0.00000000       1.00000000       1.00000000       1.00000000        1        0        0        0       5.21874720       3.01262400       0.00000000
H        2.14860000      -1.24050000       0.00000000       1.00000000       1.00000000       1.00000000        1        0        0        0       5.21874720      -3.01262400       0.00000000
H        0.00000000      -2.48100000       0.00000000       1.00000000       1.00000000       1.00000000        1        0        0        0      -0.00000000      -6.04474560       0.00000000
H       -2.14860000      -1.24050000       0.00000000       1.00000000       1.00000000       1.00000000        1        0        0        0      -5.21874720      -3.01262400       0.00000000
H       -2.14860000       1.24050000       0.00000000       1.00000000       1.00000000       1.00000000        1        0        0        0      -5.21874720       3.01262400       0.00000000
12
Properties=species:S:1:pos:R:3:c_diameter[1]:R:1:c_diameter[2]:R:1:c_diameter[3]:R:1:c_q:I:4:forces:R:3 energy=-146536.1192 pbc="F F F"
C       -0.00077128       1.39733000      -0.00043743       1.00000000       1.00000000       1.00000000        1        0        0        0       1.11068640      -3.48842880       0.56467440
C        1.20963000       0.69848100       0.00037034       1.00000000       1.00000000       1.00000000        1        0        0        0      -2.45894400      -1.13021712       0.11855261
C        1.20992000      -0.69793000      -0.00029321       1.00000000       1.00000000       1.00000000        1        0        0        0      -2.27453760       0.12234614      -0.32253120
C       -0.00115878      -1.39602000      -0.00091245       1.00000000       1.00000000       1.00000000        1        0        0        0       1.66343040       4.65942240      -0.17886816
C       -1.20980000      -0.69756200      -0.00011840       1.00000000       1.00000000       1.00000000        1        0        0        0       3.17836800       0.81592416      -0.14734368
C       -1.20991000       0.69749200       0.00070397       1.00000000       1.00000000       1.00000000        1        0        0        0       1.03224240       1.53692640      -0.33033888
H        0.00412187       2.48220000       0.00260728       1.00000000       1.00000000       1.00000000        1        0        0        0      -0.62877456       5.28912000      -0.16157808
H        2.15077000       1.23943000       0.00268918       1.00000000       1.00000000       1.00000000        1        0        0        0       4.02281280       2.69530560      -0.12738888
H        2.15099000      -1.24169000      -0.00522283       1.00000000       1.00000000       1.00000000        1        0        0        0       3.21546240      -1.89681120       0.22613040
H       -0.00154452      -2.47843000      -0.00557706       1.00000000       1.00000000       1.00000000        1        0        0        0       0.01576958      -7.33620960       0.11392517
H       -2.14758000      -1.23980000      -0.00367667       1.00000000       1.00000000       1.00000000        1        0        0        0      -5.80842720      -3.25497600       0.12971923
H       -2.15217000       1.23957000      -0.00147171       1.00000000       1.00000000       1.00000000        1        0        0        0      -3.06809280       1.98758880       0.11504592
12
Properties=species:S:1:pos:R:3:c_diameter[1]:R:1:c_diameter[2]:R:1:c_diameter[3]:R:1:c_q:I:4:forces:R:3 energy=-146536.09900000002 pbc="F F F"
C       -0.00155763       1.39765000      -0.00088350       1.00000000       1.00000000       1.00000000        1        0        0        0       2.24255520      -3.04914240       1.14397344
C        1.20946000       0.69846000       0.00074883       1.00000000       1.00000000       1.00000000        1        0        0        0      -1.59134400      -0.27068832       0.24251184
C        1.21004000      -0.69734700      -0.00059319       1.00000000       1.00000000       1.00000000        1        0        0        0      -1.24654032      -1.75278240      -0.66841344
C       -0.00234020      -1.39502000      -0.00184482       1.00000000       1.00000000       1.00000000        1        0        0        0       3.36232800       5.39282880      -0.35493120
C       -1.20979000      -0.69660300      -0.00023956       1.00000000       1.00000000       1.00000000        1        0        0        0       3.01112640      -0.39755376      -0.29663712
C       -1.21001000       0.69646400       0.00142264       1.00000000       1.00000000       1.00000000        1        0        0        0      -1.24411824       5.10389280      -0.67094640
H        0.00832204       2.48352000       0.00526806       1.00000000       1.00000000       1.00000000        1        0        0        0      -1.27301184       4.42962720      -0.32972400
H        2.15305000       1.23839000       0.00543420       1.00000000       1.00000000       1.00000000        1        0        0        0       2.74705920       2.34236160      -0.26209872
H        2.15348000      -1.24293000      -0.01055450       1.00000000       1.00000000       1.00000000        1        0        0        0       1.14580224      -0.74105712       0.47510352
H       -0.00312206      -2.47592000      -0.01127240       1.00000000       1.00000000       1.00000000        1        0        0        0       0.03155371      -8.54546400       0.22120272
H       -2.14663000      -1.23913000      -0.00743041       1.00000000       1.00000000       1.00000000        1        0        0        0      -6.32345760      -3.45310560       0.25929504
H       -2.15587000       1.23866000      -0.00297322       1.00000000       1.00000000       1.00000000        1        0        0        0      -0.86195088       0.94108896       0.24066720
12
Properties=species:S:1:pos:R:3:c_diameter[1]:R:1:c_diameter[2]:R:1:c_diameter[3]:R:1:c_q:I:4:forces:R:3 energy=-146536.0442 pbc="F F F"
C       -0.00235495       1.39798000      -0.00133598       1.00000000       1.00000000       1.00000000        1        0        0        0       3.38935680      -2.52122400       1.73604960
C        1.20927000       0.69843800       0.00113446       1.00000000       1.00000000       1.00000000        1        0        0        0      -0.66597264       0.62278704       0.37157760
C        1.21016000      -0.69675600      -0.00089951       1.00000000       1.00000000       1.00000000        1        0        0        0      -0.19636416      -3.65607360      -1.03681008
C       -0.00353812      -1.39399000      -0.00279445       1.00000000       1.00000000       1.00000000        1        0        0        0       5.08752000       6.00058080      -0.52848000
C       -1.20978000      -0.69562700      -0.00036331       1.00000000       1.00000000       1.00000000        1        0        0        0       2.74008960      -1.69449120      -0.44814816
C       -1.21012000       0.69542500       0.00215329       1.00000000       1.00000000       1.00000000        1        0        0        0      -3.53813760       8.72262720      -1.02034224
H        0.01257640       2.48494000       0.00797114       1.00000000       1.00000000       1.00000000        1        0        0        0      -1.92985920       3.48078240      -0.50435280
H        2.15541000       1.23736000       0.00822416       1.00000000       1.00000000       1.00000000        1        0        0        0       1.41249888       1.96401600      -0.40397184
H        2.15603000      -1.24421000      -0.01597390       1.00000000       1.00000000       1.00000000        1        0        0        0      -0.95271552       0.43306992       0.74658672
H       -0.00472743      -2.47351000      -0.01706640       1.00000000       1.00000000       1.00000000        1        0        0        0       0.04762382      -9.64598400       0.32237712
H       -2.14578000      -1.23851000      -0.01124730       1.00000000       1.00000000       1.00000000        1        0        0        0      -6.75349920      -3.60178560       0.38899008
H       -2.15965000       1.23775000      -0.00449768       1.00000000       1.00000000       1.00000000        1        0        0        0       1.35944784      -0.10429819       0.37652400
12
Properties=species:S:1:pos:R:3:c_diameter[1]:R:1:c_diameter[2]:R:1:c_diameter[3]:R:1:c_q:I:4:forces:R:3 energy=-146535.9572 pbc="F F F"
C       -0.00313362       1.39831000      -0.00177813       1.00000000       1.00000000       1.00000000        1        0        0        0       4.50794880      -1.93839840       2.31981120
C        1.20909000       0.69841700       0.00151384       1.00000000       1.00000000       1.00000000        1        0        0        0       0.26678160       1.50733440       0.50101344
C        1.21028000      -0.69618100      -0.00120189       1.00000000       1.00000000       1.00000000        1        0        0        0       0.81333216      -5.50029600      -1.41354432
C       -0.00470803      -1.39297000      -0.00372816       1.00000000       1.00000000       1.00000000        1        0        0        0       6.77410560       6.44260320      -0.69499008
C       -1.20977000      -0.69467000      -0.00048551       1.00000000       1.00000000       1.00000000        1        0        0        0       2.37103200      -3.02616000      -0.59743440
C       -1.21023000       0.69441700       0.00286973       1.00000000       1.00000000       1.00000000        1        0        0        0      -5.73829920      12.24226080      -1.36540368
H        0.01672440       2.48639000       0.01061860       1.00000000       1.00000000       1.00000000        1        0        0        0      -2.57497920       2.49101280      -0.67945104
H        2.15776000       1.23639000       0.01095860       1.00000000       1.00000000       1.00000000        1        0        0        0       0.08386387       1.58284800      -0.54785952
H        2.15853000      -1.24546000      -0.02128620       1.00000000       1.00000000       1.00000000        1        0        0        0      -2.97771840       1.56756960       1.02987936
H       -0.00630389      -2.47131000      -0.02275360       1.00000000       1.00000000       1.00000000        1        0        0        0       0.06377530     -10.58044320       0.41565600
H       -2.14504000      -1.23796000      -0.01499090       1.00000000       1.00000000       1.00000000        1        0        0        0      -7.07816160      -3.69315360       0.51516288
H       -2.16334000       1.23685000      -0.00598924       1.00000000       1.00000000       1.00000000        1        0        0        0       3.48832800      -1.09517040       0.51715872
12
Properties=species:S:1:pos:R:3:c_diameter[1]:R:1:c_diameter[2]:R:1:c_diameter[3]:R:1:c_q:I:4:forces:R:3 energy=-146535.83880000003 pbc="F F F"
C       -0.00391157       1.39863000      -0.00222020       1.00000000       1.00000000       1.00000000        1        0        0        0       5.62341600      -1.30240944       2.90940480
C        1.20891000       0.69839900       0.00189665       1.00000000       1.00000000       1.00000000        1        0        0        0       1.21263120       2.39391360       0.63369648
C        1.21040000      -0.69560900      -0.00150840       1.00000000       1.00000000       1.00000000        1        0        0        0       1.78469280      -7.31282400      -1.80616320
C       -0.00587685      -1.39193000      -0.00466954       1.00000000       1.00000000       1.00000000        1        0        0        0       8.46007200       6.71466240      -0.86053824
C       -1.20975000      -0.69371100      -0.00060943       1.00000000       1.00000000       1.00000000        1        0        0        0       1.89349920      -4.42123200      -0.74912688
C       -1.21036000       0.69341800       0.00358939       1.00000000       1.00000000       1.00000000        1        0        0        0      -7.87232160      15.72912000      -1.71375840
H        0.02085930       2.48789000       0.01327360       1.00000000       1.00000000       1.00000000        1        0        0        0      -3.22308000       1.45170720      -0.85930128
H        2.16013000       1.23544000       0.01370350       1.00000000       1.00000000       1.00000000        1        0        0        0      -1.25465040       1.19823264      -0.69696864
H        2.16099000      -1.24669000      -0.02661930       1.00000000       1.00000000       1.00000000        1        0        0        0      -4.95424800       2.67575040       1.33015536
H       -0.00789056      -2.46926000      -0.02847460       1.00000000       1.00000000       1.00000000        1        0        0        0       0.08077666     -11.35689120       0.50554368
H       -2.14443000      -1.23747000      -0.01875270       1.00000000       1.00000000       1.00000000        1        0        0        0      -7.30267200      -3.72813120       0.64197792
H       -2.16700000       1.23592000      -0.00748286       1.00000000       1.00000000       1.00000000        1        0        0        0       5.55189120      -2.04197760       0.66507696
12
Properties=species:S:1:pos:R:3:c_diameter[1]:R:1:c_diameter[2]:R:1:c_diameter[3]:R:1:c_q:I:4:forces:R:3 energy=-146535.6936 pbc="F F F"
C       -0.00467618       1.39894000      -0.00265509       1.00000000       1.00000000       1.00000000        1        0        0        0       6.71686560      -0.63842688       3.49593120
C        1.20874000       0.69838300       0.00227761       1.00000000       1.00000000       1.00000000        1        0        0        0       2.14117920       3.25922400       0.76731984
C        1.21052000      -0.69505200      -0.00181525       1.00000000       1.00000000       1.00000000        1        0        0        0       2.68277760      -9.05038560      -2.20711680
C       -0.00702560      -1.39089000      -0.00560540       1.00000000       1.00000000       1.00000000        1        0        0        0      10.11719520       6.79953600      -1.02480480
C       -1.20973000      -0.69276400      -0.00073350       1.00000000       1.00000000       1.00000000        1        0        0        0       1.31433120      -5.85427680      -0.90194832
C       -1.21049000       0.69244800       0.00430155       1.00000000       1.00000000       1.00000000        1        0        0        0      -9.88485120      19.11326400      -2.05940160
H        0.02491140       2.48941000       0.01589550       1.00000000       1.00000000       1.00000000        1        0        0        0      -3.86331840       0.39364416      -1.04114304
H        2.16246000       1.23451000       0.01641730       1.00000000       1.00000000       1.00000000        1        0        0        0      -2.56718880       0.82415232      -0.84872304
H        2.16336000      -1.24787000      -0.03189250       1.00000000       1.00000000       1.00000000        1        0        0        0      -6.83081280       3.72801600       1.64112480
H       -0.00946461      -2.46741000      -0.03414650       1.00000000       1.00000000       1.00000000        1        0        0        0       0.09877090     -11.95087680       0.59302800
H       -2.14393000      -1.23705000      -0.02247710       1.00000000       1.00000000       1.00000000        1        0        0        0      -7.42206240      -3.70549440       0.76861008
H       -2.17055000       1.23497000      -0.00895485       1.00000000       1.00000000       1.00000000        1        0        0        0       7.49710080      -2.91831840       0.81712512
12
Properties=species:S:1:pos:R:3:c_diameter[1]:R:1:c_diameter[2]:R:1:c_diameter[3]:R:1:c_q:I:4:forces:R:3 energy=-146535.524 pbc="F F F"
C       -0.00543365       1.39926000      -0.00308637       1.00000000       1.00000000       1.00000000        1        0        0        0       7.79626080       0.04396032       4.08463200
C        1.20856000       0.69837300       0.00266075       1.00000000       1.00000000       1.00000000        1        0        0        0       3.04570080       4.10186880       0.90268992
C        1.21064000      -0.69450500      -0.00212607       1.00000000       1.00000000       1.00000000        1        0        0        0       3.49848000     -10.71488160      -2.61812160
C       -0.00816360      -1.38984000      -0.00654543       1.00000000       1.00000000       1.00000000        1        0        0        0      11.75804640       6.68855520      -1.19163024
C       -1.20971000      -0.69182400      -0.00085919       1.00000000       1.00000000       1.00000000        1        0        0        0       0.62988768      -7.33273920      -1.05825024
C       -1.21063000       0.69150200       0.00501291       1.00000000       1.00000000       1.00000000        1        0        0        0     -11.77480800      22.40971200      -2.40468480
H        0.02891120       2.49094000       0.01850780       1.00000000       1.00000000       1.00000000        1        0        0        0      -4.50034560      -0.67771872      -1.22643216
H        2.16475000       1.23359000       0.01912490       1.00000000       1.00000000       1.00000000        1        0        0        0      -3.85112160       0.46472112      -1.00404432
H        2.16562000      -1.24899000      -0.03715380       1.00000000       1.00000000       1.00000000        1        0        0        0      -8.60607360       4.72299840       1.96351200
H       -0.01104160      -2.46576000      -0.03982510       1.00000000       1.00000000       1.00000000        1        0        0        0       0.11832451     -12.35867040       0.68141232
H       -2.14356000      -1.23668000      -0.02619960       1.00000000       1.00000000       1.00000000        1        0        0        0      -7.43784480      -3.62548800       0.89730000
H       -2.17397000       1.23397000      -0.01041760       1.00000000       1.00000000       1.00000000        1        0        0        0       9.32349600      -3.72227040       0.97362864
12
Properties=species:S:1:pos:R:3:c_diameter[1]:R:1:c_diameter[2]:R:1:c_diameter[3]:R:1:c_q:I:4:forces:R:3 energy=-146535.337 pbc="F F F"
C       -0.00617205       1.39957000      -0.00350729       1.00000000       1.00000000       1.00000000        1        0        0        0       8.84355840       0.71930304       4.66657920
C        1.20839000       0.69836800       0.00304096       1.00000000       1.00000000       1.00000000        1        0        0        0       3.89871360       4.90086720       1.03728816
C        1.21077000      -0.69397900      -0.00243712       1.00000000       1.00000000       1.00000000        1        0        0        0       4.20503040     -12.26952000      -3.03085440
C       -0.00927289      -1.38879000      -0.00747685       1.00000000       1.00000000       1.00000000        1        0        0        0      13.35575520       6.37787520      -1.36091808
C       -1.20969000      -0.69090300      -0.00098497       1.00000000       1.00000000       1.00000000        1        0        0        0      -0.14594112      -8.82796320      -1.21657968
C       -1.21079000       0.69059700       0.00571318       1.00000000       1.00000000       1.00000000        1        0        0        0     -13.49788320      25.55582400      -2.74368960
H        0.03279300       2.49243000       0.02107140       1.00000000       1.00000000       1.00000000        1        0        0        0      -5.12337600      -1.73174400      -1.41206976
H        2.16695000       1.23269000       0.02178640       1.00000000       1.00000000       1.00000000        1        0        0        0      -5.07395520       0.13206787      -1.16006256
H        2.16771000      -1.25002000      -0.04232520       1.00000000       1.00000000       1.00000000        1        0        0        0     -10.23831360       5.63667840       2.29013280
H       -0.01259950      -2.46434000      -0.04543050       1.00000000       1.00000000       1.00000000        1        0        0        0       0.13957934     -12.56889600       0.77191776
H       -2.14332000      -1.23638000      -0.02986670       1.00000000       1.00000000       1.00000000        1        0        0        0      -7.35207840      -3.49077600       1.02714912
H       -2.17721000       1.23292000      -0.01184820       1.00000000       1.00000000       1.00000000        1        0        0        0      10.98892800      -4.43380320       1.13111280
12
Properties=species:S:1:pos:R:3:c_diameter[1]:R:1:c_diameter[2]:R:1:c_diameter[3]:R:1:c_q:I:4:forces:R:3 energy=-146535.1382 pbc="F F F"
C       -0.00688933       1.39988000      -0.00391668       1.00000000       1.00000000       1.00000000        1        0        0        0       9.85464000       1.37151072       5.24021760
C        1.20823000       0.69837000       0.00341803       1.00000000       1.00000000       1.00000000        1        0        0        0       4.68604800       5.64726240       1.17020880
C        1.21091000      -0.69347700      -0.00274862       1.00000000       1.00000000       1.00000000        1        0        0        0       4.78965600     -13.70151360      -3.44188800
C       -0.01035030      -1.38775000      -0.00839894       1.00000000       1.00000000       1.00000000        1        0        0        0      14.90472000       5.86831680      -1.53459360
C       -1.20967000      -0.69000600      -0.00111093       1.00000000       1.00000000       1.00000000        1        0        0        0      -1.00513008     -10.32878880      -1.37729520
C       -1.21097000       0.68973900       0.00640123       1.00000000       1.00000000       1.00000000        1        0        0        0     -15.03849600      28.53432000      -3.07488960
H        0.03654350       2.49389000       0.02358080       1.00000000       1.00000000       1.00000000        1        0        0        0      -5.72964480      -2.75225760      -1.59713280
H        2.16905000       1.23181000       0.02439680       1.00000000       1.00000000       1.00000000        1        0        0        0      -6.22152000      -0.16736256      -1.31574528
H        2.16960000      -1.25094000      -0.04739660       1.00000000       1.00000000       1.00000000        1        0        0        0     -11.71245600       6.46001280       2.61758880
H       -0.01413620      -2.46313000      -0.05095570       1.00000000       1.00000000       1.00000000        1        0        0        0       0.16292304     -12.58109280       0.86679792
H       -2.14320000      -1.23614000      -0.03347270       1.00000000       1.00000000       1.00000000        1        0        0        0      -7.16967360      -3.30451200       1.15875792
H       -2.18023000       1.23181000      -0.01324300       1.00000000       1.00000000       1.00000000        1        0        0        0      12.47898240      -5.04583200       1.28797920
12
Properties=species:S:1:pos:R:3:c_diameter[1]:R:1:c_diameter[2]:R:1:c_diameter[3]:R:1:c_q:I:4:forces:R:3 energy=-146534.92440000002 pbc="F F F"
C       -0.00761105       1.40020000      -0.00432916       1.00000000       1.00000000       1.00000000        1        0        0        0      10.86426720       2.01061440       5.82629760
C        1.20807000       0.69837900       0.00380639       1.00000000       1.00000000       1.00000000        1        0        0        0       5.42435040       6.36094080       1.30572720
C        1.21105000      -0.69298100      -0.00307295       1.00000000       1.00000000       1.00000000        1        0        0        0       5.26210560     -15.05318400      -3.86409600
C       -0.01143430      -1.38667000      -0.00934679       1.00000000       1.00000000       1.00000000        1        0        0        0      16.45891200       5.14067040      -1.72140480
C       -1.20965000      -0.68910100      -0.00124205       1.00000000       1.00000000       1.00000000        1        0        0        0      -1.97328960     -11.88249120      -1.54703520
C       -1.21117000       0.68889900       0.00710253       1.00000000       1.00000000       1.00000000        1        0        0        0     -16.43990400      31.44168000      -3.40958880
H        0.04029370       2.49533000       0.02612750       1.00000000       1.00000000       1.00000000        1        0        0        0      -6.33980160      -3.76322400      -1.78791840
H        2.17109000       1.23090000       0.02705180       1.00000000       1.00000000       1.00000000        1        0        0        0      -7.32422880      -0.43878528      -1.47620160
H        2.17135000      -1.25178000      -0.05255380       1.00000000       1.00000000       1.00000000        1        0        0        0     -13.07023200       7.21578240       2.95555680
H       -0.01570960      -2.46211000      -0.05660760       1.00000000       1.00000000       1.00000000        1        0        0        0       0.18968688     -12.39517440       0.97194528
H       -2.14319000      -1.23595000      -0.03715140       1.00000000       1.00000000       1.00000000        1        0        0        0      -6.88815360      -3.06249120       1.29782880
H       -2.18311000       1.23058000      -0.01465180       1.00000000       1.00000000       1.00000000        1        0        0        0      13.83628320      -5.57441280       1.44888480
12
Properties=species:S:1:pos:R:3:c_diameter[1]:R:1:c_diameter[2]:R:1:c_diameter[3]:R:1:c_q:I:4:forces:R:3 energy=-146534.69840000002 pbc="F F F"
C       -0.00833718       1.40053000      -0.00474469       1.00000000       1.00000000       1.00000000        1        0        0        0      11.87088480       2.62373760       6.42526560
C        1.20792000       0.69839900       0.00420722       1.00000000       1.00000000       1.00000000        1        0        0        0       6.10185600       7.03483200       1.44342720
C        1.21120000      -0.69249300      -0.00341161       1.00000000       1.00000000       1.00000000        1        0        0        0       5.61021120     -16.31476800      -4.29603840
C       -0.01252470      -1.38555000      -0.01032300       1.00000000       1.00000000       1.00000000        1        0        0        0      18.01699200       4.19261760      -1.92415680
C       -1.20963000      -0.68818700      -0.00137894       1.00000000       1.00000000       1.00000000        1        0        0        0      -3.04610400     -13.48323840      -1.72684800
C       -1.21140000       0.68808000       0.00781821       1.00000000       1.00000000       1.00000000        1        0        0        0     -17.68867200      34.26796800      -3.74729760
H        0.04403990       2.49675000       0.02871380       1.00000000       1.00000000       1.00000000        1        0        0        0      -6.95283840      -4.75241760      -1.98427680
H        2.17307000       1.22995000       0.02975460       1.00000000       1.00000000       1.00000000        1        0        0        0      -8.37103680      -0.67644576      -1.64112480
H        2.17293000      -1.25252000      -0.05780230       1.00000000       1.00000000       1.00000000        1        0        0        0     -14.29941600       7.89667200       3.30251040
H       -0.01732280      -2.46126000      -0.06239780       1.00000000       1.00000000       1.00000000        1        0        0        0       0.22046976     -12.00968640       1.09002528
H       -2.14331000      -1.23580000      -0.04090900       1.00000000       1.00000000       1.00000000        1        0        0        0      -6.51088800      -2.76681600       1.44548640
H       -2.18584000       1.22922000      -0.01607480       1.00000000       1.00000000       1.00000000        1        0        0        0      15.04857600      -6.01253280       1.61303040
12
Properties=species:S:1:pos:R:3:c_diameter[1]:R:1:c_diameter[2]:R:1:c_diameter[3]:R:1:c_q:I:4:forces:R:3 energy=-146534.4644 pbc="F F F"
C       -0.00906341       1.40087000      -0.00516080       1.00000000       1.00000000       1.00000000        1        0        0        0      12.86684640       3.19471200       7.03393920
C        1.20777000       0.69842800       0.00461939       1.00000000       1.00000000       1.00000000        1        0        0        0       6.70366080       7.65835200       1.58198400